LAMMPS data file via write_data, version 22 Jul 2025, timestep = 10000, units = metal

21600 atoms
5 atom types

-1.8922399903197515 53.75622599031991 xlo xhi
-1.3984106028263632 50.11633460282623 ylo yhi
1.426867464245447 83.64060653575481 zlo zhi
0 0 0 xy xz yz

Masses

1 55.845
2 26.98154
3 55.845
4 26.9815
5 28.085

Atoms # atomic

1743 2 -0.41145741274311187 2.183770568193326 83.62332130994383 0 0 -1
8 1 -0.5553468188436104 2.2564220986146704 4.6934987521702904 0 0 0
216 5 0.7002518552472936 2.949093674140829 3.105278884738998 1 0 0
20741 4 1.7237909270965734 1.1598960674994685 83.60788349851367 0 0 0
949 1 -1.0310544890616846 49.751739182991614 2.0325995215327115 0 -1 0
1730 1 -1.7858117930237132 -0.7043463101033751 4.250551204201466 0 0 0
1008 5 2.1620185223128114 0.26094168132531026 3.998279995130719 1 0 0
20749 1 0.19644175555391863 0.7480666631192219 3.255759844967751 0 0 1
71 4 -0.18793372221211468 0.25912683276959214 5.421536629575037 1 0 0
946 3 3.2705877190500807 -0.31323417969328604 2.390007776332833 0 0 0
947 4 4.599342066762415 1.4607202024967805 3.224343746953842 0 0 0
220 3 2.6203279371998693 2.152384659631422 3.033421529084438 0 0 0
15 2 5.773547592284043 0.04890960698076152 2.195623203919613 0 0 0
948 5 4.8050387010715 -1.1863786210905714 3.6363785594412663 0 0 0
1736 1 4.402078808851704 0.14244962420122698 5.178363870151472 0 0 0
88 3 6.074509247350456 1.085397411675932 5.567972003652529 0 0 0
1731 2 3.245392750551704 1.7420897739248318 4.863487556916548 0 0 0
942 5 6.443059739282562 2.8088335060046186 4.580339934588832 0 0 0
11 4 9.213641340261107 -0.4168519107320624 2.6111556532356395 0 0 0
953 4 7.1600806872400575 0.15035762483694937 3.929584560674882 0 0 0
1890 5 9.04543349895522 2.3383370923650544 3.148506253257308 0 0 0
20818 3 6.942430878312944 1.9062655092585423 2.769997685252153 0 0 1
873 2 10.463634523865808 2.6679346771143715 4.894567429102297 0 0 0
1810 3 8.882942983745183 0.9422201491969946 4.702793208620658 0 0 0
84 5 10.156565457456203 -0.6717329422312949 5.119666484574786 0 0 0
806 1 10.660353983141563 0.9810267536071504 3.4033644936168095 0 1 0
20754 5 12.17194761419678 -0.23923327861321297 2.744058456676024 0 0 1
19 1 14.155452480058042 0.4505102249617401 2.0334965151582445 0 0 0
889 1 13.818967591913083 0.36708891486819173 4.230836099810212 0 0 0
19895 4 14.722974350638015 -1.261987026633154 3.1297804373321885 0 0 1
1750 3 11.81705406054664 0.6524878225855435 5.160300870886657 0 0 0
2542 3 15.133389561968823 -0.9886209276844717 5.292664229398376 0 1 0
21548 1 12.527241331139386 2.049590786968525 2.4784763676018633 0 1 1
882 5 13.104470354954683 -1.2547550400597844 5.561393213273772 0 0 0
20759 4 16.09586613579898 0.6244317839224274 4.330204616533875 0 0 1
19033 1 16.63692350270497 -0.3185819349976753 2.5562140576304744 0 0 1
2613 2 15.309642281456384 2.125158217046693 2.843710093319827 0 0 0
1833 2 17.764167731168914 1.8710883829429767 3.5365208736867664 0 0 0
24 5 18.630385153994116 -0.11557142847577073 3.331859121860261 0 0 0
888 5 19.04757794192244 2.211462990017981 5.282796497622194 0 0 0
21559 1 19.178169605008808 0.9412578103862148 1.4570024528029837 0 1 1
1681 1 21.5454579685146 -0.1329378462004034 3.8127427939882605 0 1 0
20691 2 20.090479587583186 1.5308796024234033 3.413027663832156 0 1 1
19974 5 22.075061053707245 1.1502133467786089 2.207024867814356 0 0 1
828 5 23.597014425717223 -0.39209846855980124 4.514828372244695 0 1 0
21566 1 23.09038616315004 -0.8920249395499484 2.350901187882318 0 1 1
20771 4 21.713859737234475 1.655435429107745 4.757719110368111 0 0 1
1686 5 20.630746705221693 -0.7179481636805315 5.57153551303276 0 1 0
21565 1 23.648154065010353 1.495372080763552 3.6270728414738063 0 1 1
904 3 25.603505394108954 -0.7575390488919822 3.7729222626316923 0 0 0
20705 4 24.735593535303607 0.39338392216535234 2.1558324303481804 0 1 1
19914 5 26.76617977562714 2.068650400693878 83.4615632976324 0 0 0
969 2 27.899383289020697 0.1791283937871686 4.249085512944883 0 0 0
20700 5 27.335638044276365 -0.7582111694965087 2.382486897776776 0 1 1
114 5 26.113104189211217 1.4526011651517474 4.217527189388815 0 0 0
116 1 27.912975042205005 2.069812758113002 3.270288023929301 0 0 0
21567 2 28.745347562259415 0.7264878708371749 1.6645075758403145 0 1 1
184 3 29.67808039232712 -0.9657005863695487 2.868125635846944 0 0 0
2642 1 31.33919786857792 0.5047076677778084 1.8430688467072787 0 0 0
1780 3 30.036801258905363 1.085420320843261 4.099626644250514 0 0 0
106 3 32.16693518721649 -1.0357576245844697 3.704402247123426 0 0 0
1768 3 30.363753781888484 2.525502497061455 2.4918304754453926 0 0 0
976 3 32.207983421394076 1.855283411598056 4.274126591483115 0 0 0
129 2 34.62207006778346 0.8476951406937681 4.496396533118647 0 0 0
1844 1 36.30802368952515 -0.6034949463097057 2.45735517631287 0 0 0
44 1 33.63082041985895 0.44353073486344186 2.324310353149048 0 0 0
20059 1 36.22298812416005 1.68263078383944 2.396092761273007 0 0 1
915 2 34.15189705431005 2.7311453508843497 2.9976343640263257 0 0 0
908 1 32.35334867360458 2.7032570303272374 1.4429557819768861 0 0 0
844 3 38.493124915789394 -0.9302739460851706 3.8192693599716145 0 1 0
1771 1 36.63251392954184 -0.44313831131171877 4.850013635348963 0 0 0
46 3 37.809444212985724 1.533606904292756 4.387106423014849 0 0 0
716 1 40.37692350104741 0.17403149294879094 4.751647245624746 0 1 0
20866 3 39.97687356689517 2.9040889523006745 3.8115728954054786 0 0 1
21574 3 38.88486633239857 0.7161566391111882 2.074706776039661 0 1 1
1713 2 39.584295254783164 1.8841980404352592 6.278580958660581 0 1 0
854 1 43.862105572686936 0.5710530769083793 3.8569060019919235 0 1 0
20791 1 44.494314724835675 -0.4097155330280481 5.7229516721738545 0 0 1
20725 1 41.19627253017844 1.4388100002118738 1.5621343850316474 0 1 1
20864 1 41.92165026035863 1.6136702194268904 3.65474640125997 0 0 1
987 2 43.879431261607614 2.266011766186826 2.244725579124209 0 0 0
921 2 42.572440178550885 -1.0480028286979903 5.120212612858118 0 0 0
20068 3 41.58363857940009 -0.6654480139174036 2.8647385368018123 0 0 1
19924 3 43.282306717977825 0.10358224207334255 83.38352286633948 0 0 0
60 5 45.268891613546245 -1.2194871117985313 3.9295867921256633 0 0 0
1000 3 45.47590921644807 -0.2500026715518937 1.8286545349455832 0 0 0
21524 1 48.68932345801906 3.0642814596789902 3.2087113993168206 0 1 1
21531 2 45.809616108864645 1.8199944191419863 3.5782052879918007 -1 1 1
2529 2 48.623065842088174 1.040792809445608 2.915013896033401 -1 1 0
143 4 47.24679360022958 0.5985355360343578 4.57304002122855 0 0 0
934 3 47.24364791169658 -0.8235335819096561 2.8760961624791648 0 0 0
20809 1 53.65047185435052 0.8317744502169369 2.712243349664063 -1 0 1
799 1 53.30235940650733 3.0423502549737353 5.127791659559929 -1 1 0
944 1 52.593568283272106 2.51688981865678 1.757562654656476 -1 0 0
794 1 49.35295730986788 2.0517338760792545 83.25932987816354 -1 1 -1
208 3 51.09622539779098 1.7570193665906122 3.3049733300348105 0 0 0
2662 3 51.62504614350867 -0.47918863073771456 3.625475472979903 0 0 0
1002 5 49.56963672410685 1.8863624879032228 4.847819874329654 0 0 0
930 5 52.6965412993979 1.0996650950191658 4.71522173588988 0 0 0
1513 1 49.628047678122705 -0.3146884026353547 4.486490323770969 -1 1 0
795 2 51.169187480902444 0.7177585438317058 83.36629100494646 -1 1 -1
1658 1 -1.4191509097376573 3.3409975845953177 3.0585139200099256 0 1 0
20087 4 -0.666203234160127 4.914200019301428 1.7851937886504836 1 0 1
21018 5 -1.570973117216504 7.35770763647113 3.20099223396595 1 0 1
20815 1 1.7484048483240513 4.483299091199647 2.030029284459001 0 0 1
21024 5 1.2352102236334166 6.064459344867681 3.350225791523269 1 0 1
219 2 1.25873573832903 4.404411687437485 4.682233013855003 0 0 0
20946 5 -1.0898905189317651 4.690432215630096 4.7790900844509805 1 0 1
1011 2 1.8812994783450416 7.331595445761328 1.8777541862053726 0 0 0
1020 5 3.5137480920108786 3.294882681518896 1.5598517945601422 0 0 0
1014 5 3.3318471781278136 3.7449970661467678 4.4875507713196505 0 0 0
1021 1 5.002775778881085 3.7369941334687002 3.1043305074779513 0 0 0
20819 4 3.8001691428756654 5.777667051065967 2.7244948521381405 0 0 1
1025 4 5.541012098183501 5.38116041423108 4.430470993224095 0 0 0
20887 1 4.9227768945212445 7.34415717253985 4.091956326630784 0 0 1
1092 5 6.544734896217326 3.574995015799794 1.6312612767296788 0 0 0
89 4 6.164838910821441 6.169081685656305 2.142308381293926 0 0 0
77 4 3.268969874473161 6.353328396088055 5.272485649632621 0 0 0
161 4 7.910801457315337 4.993641306105954 3.6880245450926608 0 0 0
1816 3 8.052577364453418 5.297009764203051 1.715894497629645 0 0 0
1744 3 7.310559185631165 6.539593278721266 5.058615846390102 0 0 0
28 3 9.457800575573904 6.758819744274355 3.3886790267722864 0 0 0
3393 2 9.789653699219881 4.405403563934714 2.901271621755761 0 1 0
1882 3 8.4040495484014 3.416600279286791 5.037493508437882 0 0 0
4483 1 9.33830019981322 7.739725286722852 5.499386562819254 0 0 0
154 3 9.707955273364542 5.186456900686857 4.972694281229205 0 0 0
19236 5 8.50565083195154 7.395236371192187 1.5342944585549236 0 0 1
1821 2 11.019114792162817 5.9223874976281055 1.450665851170304 0 0 0
14 1 11.988827585679456 4.202113101701538 3.213072264185145 0 0 0
2758 3 14.375315464819604 6.603132907263168 1.6492769461221015 0 0 0
2035 1 14.27620838501089 4.479941768736383 2.919396161340484 0 0 0
26 1 11.951277518777802 6.3953936019054405 3.5158093998018707 0 0 0
819 2 12.86000091279155 2.6268663477190293 4.70789282058135 0 1 0
19964 1 14.42557954002142 4.362132190698148 5.374936830961497 0 0 1
19178 1 16.90113896502944 6.025927991423801 3.515151104428025 0 0 1
9 2 16.068149539972783 4.768391481480537 83.44689350220115 0 0 -1
1755 2 18.261250388936983 4.084794609412905 2.3482492104237482 0 0 0
31 1 18.74605627064108 6.849177418337149 4.403547033554894 0 0 0
886 3 18.554178994947648 4.241650424592572 4.493845761836752 0 0 0
1966 3 16.35825193809818 3.656773680940172 4.119224853518299 0 0 0
18310 3 19.863668289757165 5.723209056520732 3.015626501449599 0 0 1
20832 5 20.434678489261135 3.6341928923056424 2.982662286553003 0 0 1
20702 1 22.320169640074816 3.9344185657327015 2.361144699356081 0 1 1
113 4 22.69266502152001 4.003547771291528 4.721973183779161 0 0 0
29 4 21.91288271599423 5.931282951226206 3.479210212536825 0 0 0
40 3 20.743913548133982 3.445386709817699 5.096972843773875 0 0 0
20765 4 20.250629516294577 5.414743429717952 5.260555583565483 0 0 1
35 4 23.328117099916685 5.53090001755704 1.4404801141152446 0 0 0
894 5 24.232263427550443 3.187397194583009 2.563156849004643 0 0 0
37 1 26.150428957464637 4.014639451161272 2.0248872284633803 0 0 0
108 5 27.80206523249397 4.138431305020245 3.6720009251581285 0 0 0
966 5 25.726769380056606 6.051110778176373 2.7686832588850123 0 0 0
43 1 23.96676332627425 5.096146834808423 3.3655262615205714 0 0 0
905 4 25.28591276206321 4.120725180159941 4.894719233324347 0 0 0
899 4 23.954809872197256 6.297274999978463 5.025740012747804 0 0 0
20923 1 27.852462500048713 5.768905684473014 2.3154589464076576 0 0 1
1840 3 28.144051546234913 6.137216594662519 4.46340115361259 0 0 0
975 2 28.416570457337517 3.4589704013536107 1.59845937740247 0 0 0
20631 2 29.71559903052307 3.6058323025939156 4.546153591634384 0 1 1
21058 3 29.899099536505062 4.6607210984815906 2.6590364386678296 0 0 1
20920 3 29.953829017967777 6.595560510307105 3.717460662550861 0 0 1
1120 3 31.842225168226747 6.450771084909318 2.7874699692693645 0 0 0
1922 1 31.89884459009967 6.072748688871401 5.075223846865784 0 0 0
3427 1 31.92910832868934 4.151715938710716 3.8407639771982445 0 1 0
19978 3 32.15885835621058 5.027110527704194 83.23028633110505 0 0 0
1047 2 30.11693641703846 6.3208953504047845 83.34887722656639 0 0 -1
20781 2 34.39803301075193 5.569480991415191 4.865846252363367 0 0 1
992 1 33.69307021644277 3.1661039628138505 5.542326912018495 0 0 0
256 3 35.70463381568181 3.3450595241992183 4.522455711774853 0 0 0
1045 1 35.35247117814594 7.079157968046067 3.1906771066284607 0 0 0
1846 3 35.842662672605634 4.627587408175061 2.703397956152001 0 0 0
19058 1 33.67271971991246 5.049649796601502 2.7853703885927965 0 0 1
188 1 33.75530322749283 6.847150233415775 1.5743468832235317 0 0 0
853 1 37.87257483815135 3.601871409949168 5.636681511598607 0 1 0
2650 3 36.939255622155926 5.767019404729665 4.542185870192439 0 0 0
194 1 41.41770588854524 4.948984005164601 3.8861589457665042 0 0 0
61 1 37.632372199003555 5.759922733976694 1.9390137326553327 0 0 0
982 3 39.13108016761025 5.414089848281947 4.045355316478524 0 0 0
20865 2 37.98083413365794 3.4151088553309217 2.742252027446747 0 0 1
109 1 39.935849173477585 6.35418153164233 1.8252744516830814 0 0 0
1856 1 43.66453578733194 3.212600907275583 4.38757306144252 0 0 0
189 2 40.408971913395135 7.431017577946285 3.9287170222334433 0 0 0
2079 2 42.79367079582142 7.1287746173889985 4.003648058629033 0 0 0
2575 1 43.09899332771992 5.448845769580873 5.542354610406177 0 1 0
1142 1 43.815213797467855 5.316475318208918 2.8704796004787863 0 0 0
199 1 41.88760661027472 3.518889511603162 2.133723365432137 0 0 0
1071 2 45.00215737243686 6.961888734866667 5.225573671527419 0 0 0
20795 4 47.16823352553636 3.18801278372675 4.690729440712019 0 0 1
20803 1 46.02058530497834 3.795085952248332 2.6081677462687987 0 0 1
1580 1 47.753912533948586 4.920942328586449 3.3332196027623526 0 1 0
20941 1 48.94927928560745 6.580019464763469 4.197624986813798 0 0 1
50 1 45.92984763286285 6.095802420618918 3.2770016294128403 0 0 0
133 1 45.48783565031364 4.504398154895964 4.879659013826229 0 0 0
204 5 47.129949550580946 5.9046766596765785 5.1807548746898 0 0 0
19870 3 48.00477990738789 3.7962136083327422 83.04572793088929 0 1 0
19802 1 49.13038177745297 5.6725067248072385 1.7723493718628376 -1 1 1
136 3 50.464885746106916 3.771679274242187 2.16665811973485 0 0 0
209 4 52.11810873758407 3.7188188714983603 3.5322737452171538 0 0 0
1869 2 53.37543724808189 5.37848729631608 3.123018457397734 0 0 0
20953 1 51.1399053314186 5.839664706657409 2.911515029976713 -1 0 1
131 4 49.765736727683944 4.603019930339664 4.258840692144276 0 0 0
20945 4 52.19196999189135 5.999427171610777 4.803011018879231 0 0 1
20950 3 52.44674447751042 4.63068443893187 83.28220691515949 0 0 0
20821 1 -1.2352789284556587 9.4041513072441 2.639620760910097 0 0 1
20159 4 0.7684053490212048 8.789241000581749 2.898206275104219 1 0 1
1162 3 1.4558176347079361 10.58292823433635 1.7470704173166391 0 0 0
140 1 0.22747838380227048 11.640301091912791 3.9175595940122623 1 0 0
20955 2 0.11311305865572985 7.652657964809196 4.542117507583408 0 0 1
21023 4 -0.6039660998601724 9.771127871321966 4.7776837516889366 1 0 1
360 5 2.3198235380677232 10.880096919688283 3.651802278391142 1 0 0
1086 5 5.5706637258706495 8.73489187882428 2.6628437464786012 0 0 0
20029 1 3.8097354534426353 9.938568931401855 2.550837472866897 0 0 1
160 3 5.454773061512763 10.904752303895282 3.7711462189897818 0 0 0
221 4 3.0589814035273886 8.079436342588595 3.4781430643439006 0 0 0
1885 1 6.453450439718441 9.017743590197746 4.877366890737951 0 0 0
20957 4 4.3142671195176145 9.539940405777482 5.027956914470954 0 0 1
951 2 4.108097936825179 7.518553637825043 1.6599803153444344 0 0 0
20101 1 5.132474952648281 11.765428673609813 83.60588832375245 0 0 0
20822 1 7.289246472801549 7.534475572971612 3.291977110737122 0 0 1
4557 2 8.742889670805418 9.235455356983255 3.854891329545531 0 0 0
1893 2 6.864044710213507 10.34668030859597 2.2594181223669145 0 0 0
20890 3 11.016058433342062 8.504416328844522 3.5310899329245617 0 0 1
3603 2 8.77225948095656 9.576572867535951 83.54479488712578 0 0 -1
19166 1 10.445038759785271 8.176403603608364 1.5166405364296562 0 0 1
157 1 8.356387577260941 11.497412984026894 3.2288682781152414 0 0 0
1018 3 10.826860829235574 10.303695817965378 83.27138786539247 0 0 -1
1965 2 10.6678510919519 10.781676908724092 3.198908191954032 0 0 0
228 5 9.259443307966402 11.795925648606504 83.4018685369948 0 0 -1
19117 1 12.602713992250765 7.986253434588896 1.8605005932635454 0 0 1
91 1 14.497695417579486 9.129060432541344 2.236279943858827 0 0 0
1177 1 14.314561993199 10.317830365934077 5.0002758313071896 0 0 0
20839 1 14.281784972047571 6.623710669174965 4.072650124938338 0 0 1
229 1 12.784941609923198 10.36722298502871 2.6726112257791708 0 0 0
234 5 14.773272074125877 11.307769529654754 2.912068737913216 0 0 0
1747 1 13.050599211682986 8.669720576513791 4.411628532025221 0 0 0
1761 2 16.368702814083033 7.84359054092074 2.1141330318417184 0 0 0
313 1 17.544678219620298 9.0980125707189 3.8869340098127623 0 0 0
20900 1 16.59422256286568 10.583405549411877 2.2913668227076744 0 0 1
245 4 18.06147517980997 9.22741587100424 1.7922931041790264 0 0 0
1753 1 15.545798887430724 8.502618827976905 4.358618139601042 0 0 0
1030 3 19.22126627529743 10.417695086824114 5.3300279845249285 0 0 0
1176 5 17.79621311748879 11.30321940688285 3.846462970273782 0 0 0
20828 1 19.644385590016093 7.8342506426562935 1.9643233276000776 0 0 1
960 5 19.67446182391065 8.790295312375887 3.9754094770747397 0 0 0
101 4 22.140659752098454 9.894800365764336 4.211840358428782 0 0 0
244 3 21.449025148713552 8.009192978837154 3.251037806522051 0 0 0
102 5 23.485811671032767 7.935961044541225 2.782469455576388 0 0 0
965 4 21.788161212625024 7.599950399224118 5.353250143264066 0 0 0
172 3 22.77394713173692 9.745533130520958 2.3071018943535138 0 0 0
1035 2 20.37394689616935 10.387904427612265 2.827182533090996 0 0 0
1039 1 23.674926317808186 8.338471384979103 4.800721811234462 0 0 0
20843 4 25.906177059624167 8.596924577345584 1.66762019087507 0 0 1
107 4 25.726398845647655 8.44857518753238 4.213345564122129 0 0 0
973 1 28.087185935492357 7.477003290409575 83.55044993976227 0 0 -1
173 4 24.442500105249007 10.508225970075987 3.1451625030779153 0 0 0
20915 4 26.974796476263013 10.418220747639252 3.1370893425876067 0 0 1
179 4 27.258857188625775 10.020995841209345 5.530296931982196 0 0 0
20852 1 28.946808098860046 9.802054595378573 2.5542462764295273 0 0 1
20911 1 30.28468406853689 8.248538092959503 2.4541959908208213 0 0 1
180 5 28.238068898987297 7.992278526189953 3.336685367733513 0 0 0
20134 3 31.263643503848478 10.158247516076337 3.613575340087935 0 0 1
1049 4 31.787002942333167 10.594930730958081 5.642580184880285 0 0 0
1845 2 30.04837303440566 9.468214603749798 5.511335618001806 0 0 0
20053 1 32.49440215673511 8.749080989784048 2.028890985792274 0 0 1
1980 5 29.40758740935734 10.944791056969791 4.220436230974874 0 0 0
1842 5 31.171630142907 8.159958703995759 4.437201904172889 0 0 0
20922 5 30.851983131637674 10.183444651006116 1.5365447532629992 0 0 1
20792 1 33.27416956538714 7.660704591201524 3.8655558204888814 0 0 1
187 1 36.50187377015549 8.44163342094278 4.185290765637468 0 0 0
185 4 33.29932464769313 9.822078456855 3.7695292398373916 0 0 0
192 5 34.855563168890676 8.757786611992918 1.828709942479716 0 0 0
20921 4 35.74756403126347 10.395759175220768 3.839973972917629 0 0 1
119 4 34.583713896831966 8.442364659490085 5.400542694393492 0 0 0
1851 2 36.4810723517201 11.399872716085271 5.4564393164975336 0 0 0
21070 3 35.9473383211713 10.577884999868722 1.677982976051716 0 0 1
190 3 38.16831059395947 7.711768625692848 2.8849203127381067 0 0 0
909 2 38.54046561220111 9.64969245574881 4.516704497495418 0 0 0
20073 2 40.85525955774877 10.130414537388628 4.246419454550806 0 0 1
122 1 39.87455684142958 9.118418139136903 2.2458520203483303 0 0 0
20855 4 37.811731307950105 9.871465289539017 2.5338873632077976 0 0 1
2791 1 39.343749113917426 11.386354060504418 2.686358441604871 0 0 0
1778 1 38.58251462385446 7.706769459403191 5.723610695559658 0 0 0
20938 3 42.39474362449356 9.036936242483833 2.853495014377513 0 0 1
2797 1 44.27854654403771 10.213017060974577 2.047677808750898 0 0 0
20077 1 43.13802992548961 11.020860611156982 4.053444146606569 0 0 1
20797 1 44.69276521871456 9.51551659710415 4.888044419427786 0 0 1
262 3 41.488159121251776 11.772826155149643 2.2504659047588826 0 0 0
2871 2 42.53451846280677 8.726286580476856 5.924048703039296 0 0 0
1726 3 44.8888095852619 8.035931085129578 2.9833885504388635 0 1 0
148 3 47.414609031844634 7.739288431600567 2.433601847452764 -1 0 0
1796 1 47.0046062463482 8.158760473635935 4.645015851069752 0 0 0
134 1 46.69078999115636 10.007074427335857 2.8960748750411938 0 0 0
933 2 47.082115742534576 10.785540975080322 5.235850165950351 0 0 0
1060 3 48.960474832664865 9.33706029049459 3.768545786440934 0 0 0
20019 2 52.24082926426521 8.31311879992994 2.431806015417567 -1 0 1
999 2 50.86913474286826 7.7241308660251455 4.419971135917475 0 0 0
1282 3 49.781488206291364 7.852380395360708 2.132992674216267 0 0 0
2881 1 53.09901373546904 8.714070896052572 4.516375397552542 -1 0 0
20083 1 53.33885181857747 11.175252541977905 4.242681184504705 0 0 1
206 1 51.27829681920043 10.114665226192685 5.057237906337044 0 0 0
18367 1 1.8692146228219544 12.857827483624044 4.620486908632429 0 0 1
17708 1 2.255385954217239 12.566895174522836 2.144218590292475 1 0 1
2019 2 2.7381368810291002 14.782509867172333 3.166812098837407 0 0 0
2020 3 3.922752543995382 12.492681161521675 3.8695661317164105 0 0 0
20894 1 4.8693130767667085 14.125569412349632 1.9795704561459733 0 0 1
19237 1 5.054863620946194 14.899337115936468 4.368144790059808 0 0 1
1096 3 6.4607967772315735 12.831026584727597 3.2273438803725676 0 0 0
164 1 7.588112492808968 11.397897795771849 5.457271562016163 0 0 0
1897 1 8.269370089016872 13.623427043499733 2.1465996719024982 0 0 0
1891 1 10.034733430020172 12.806947426869117 3.091814662288117 0 0 0
237 2 9.559337452448935 15.228241645574684 3.550098527628392 0 0 0
20177 4 10.210988336469214 14.395542057184478 1.5703502462659742 0 0 1
1027 1 7.2211669762423725 15.266301230259423 3.3818588309268574 0 0 0
165 2 8.27395358091271 13.543241009128787 4.852196309911731 0 0 0
18458 1 8.615398010301366 16.027542183343783 1.5844607400168307 0 0 1
20972 1 10.396914947266355 11.779473724609092 5.251649613077397 0 0 1
1026 5 12.001073601970988 12.358206311102574 2.304006244773827 0 0 0
20971 1 12.679431879937663 11.949473754927972 4.545776768593733 0 0 1
231 2 11.647962807729419 14.192225785219824 3.466102535147159 0 0 0
311 4 13.729545313029817 13.770690168150644 3.838728491360604 0 0 0
20968 3 13.311602756468055 13.7478885275844 83.59870239156818 0 0 0
21042 5 12.606256433633087 15.577742165800604 2.1377845790930685 0 0 1
21052 3 16.30057636174336 12.660142868486105 2.7539234309673404 0 0 1
21053 4 18.03109915065413 13.707496633689429 2.3423731104361716 0 0 1
1098 5 15.368572110803388 14.196582788409772 1.6803112706031282 0 0 0
1034 1 15.861982265942913 11.781493131915134 4.659161277813778 0 0 0
1248 5 16.33782283502231 13.871146398214202 4.447791617492335 0 0 0
239 4 19.01733470406794 13.73905645894865 4.7216323237697555 0 0 0
1251 2 17.517672831363626 15.331060901100251 3.7383631008791673 0 0 0
314 1 19.09613835925023 15.413629696880697 2.058838985161299 0 0 0
20904 5 19.395153742234978 11.540677301084182 83.60662286538467 0 0 0
20837 4 22.03604086996521 11.617389631490223 2.2626408028361897 0 0 1
20909 4 20.497999358921394 11.787150898232701 4.368124860346554 0 0 1
1110 5 23.125861837157665 12.501482376226686 4.584265264939713 0 0 0
20912 1 22.739957560606165 14.278577170904954 3.5012052777832903 0 0 1
1182 5 21.499569204983484 14.954504187363785 5.177140235202932 0 0 0
240 5 20.719464275504837 13.962117175594003 2.528649861542001 0 0 0
174 5 24.087631066205677 13.643353395183514 2.024278207792263 0 0 0
242 1 25.755003157968165 12.375547046691608 2.715967278172358 0 0 0
176 1 23.914871145020157 11.60897724692194 83.63375897157263 0 0 -1
21060 5 27.052406987012585 13.843256612588444 1.7806007362910998 0 0 1
2046 5 24.451969090461407 15.399015942965256 4.653679750508115 0 0 0
19988 1 25.59567841320789 14.845008077728082 2.911278553400642 0 0 1
1043 4 25.782332990585427 11.942837022245916 4.833009829346011 0 0 0
1115 4 26.86008960829655 14.110290047656788 4.420470888976695 0 0 0
253 1 27.926409711651655 12.396673513728302 3.6672770118211724 0 0 0
1046 1 26.31367018242369 15.667270958641417 5.744044064294177 0 0 0
3633 2 28.32888669409901 15.542469667416697 3.8647604840893988 0 0 0
20993 4 28.602717727174166 11.7312037005735 1.683271060597279 0 0 1
20858 1 30.338540499498244 11.99007627258952 2.712438063083788 0 0 1
1123 1 29.103730931053985 13.884769884462397 5.20223834139448 0 0 0
1122 5 32.228535272035415 12.22445018168063 3.3850052469462044 0 0 0
1053 2 31.421052625176003 13.947359252071877 4.222669228184344 0 0 0
324 5 29.570046956836276 13.894825904812896 3.277104197021637 0 0 0
263 4 32.144096797088 14.804593036666564 2.5356530077792288 0 0 0
195 2 32.94199283526496 13.00998831859879 1.4720667450262117 0 0 0
1054 3 34.194912247347204 11.794141968291106 3.948111419931256 0 0 0
267 2 33.842045675481614 13.643424680600662 3.147682475914783 0 0 0
258 5 34.9082436271049 12.357056580981876 1.9405683964416527 0 0 0
259 1 36.38123388610105 13.94664337422233 2.7507589311579963 0 0 0
1128 5 34.776908004629476 15.399492852721565 3.027591914341426 0 0 0
1141 1 36.471012112216364 15.434280834753345 4.2059832099533665 0 0 0
1055 4 33.37185660222326 14.025567659521053 5.071334716039772 0 0 0
989 4 35.75055304401702 13.256721006524348 4.589755905937158 0 0 0
1050 5 38.27670800784056 11.82217752998204 4.454650445926127 0 0 0
980 1 36.72079664763525 12.022017713026893 3.0632228964665673 0 0 0
264 5 37.915386283159066 12.752017556413787 1.581875235876313 0 0 0
1059 2 38.189083776181285 13.875152587712947 3.8937885625909785 0 0 0
1857 2 40.578990538782776 12.611692284411898 4.456104230587327 0 0 0
21073 1 39.91043896709938 13.492269715265039 2.4459336303751176 0 0 1
344 1 39.77667358892028 14.752510888815479 5.208267776786618 0 0 0
1216 3 40.21549699467664 15.767503784978302 2.313988180817153 0 0 0
20931 2 38.33071536024834 15.009820511694492 83.48301104728479 0 0 0
19287 2 41.920728023437434 14.33162027946414 83.44735488371401 0 0 0
20935 1 43.72808526463019 12.516223549340392 1.9389191741963503 0 0 1
1057 1 42.19685835783304 14.228335416839727 3.647205816076576 0 0 0
1933 1 43.936566640042756 12.961531264427727 4.839884371022455 0 0 0
1930 3 44.27741271847243 15.133470143120466 2.220077698320425 0 0 0
1993 1 44.293735181272865 15.203595361143076 5.134626598784363 0 0 0
998 1 45.71336094724527 12.011233558373888 3.599646058602608 0 0 0
19945 1 46.108916053228825 13.260137247730274 1.5702112577208238 -1 0 1
21014 1 46.133078245144006 14.715730847089805 3.635393278710725 0 0 1
2086 3 48.78203664172485 15.369759476798123 3.536785999460691 0 0 0
202 3 49.451217151050415 11.501893165789506 5.21796517146986 0 0 0
364 3 50.4567521779738 13.784871789948951 4.951579969296995 -1 0 0
2805 2 53.07203213387907 13.643490440643598 5.537806505936833 0 0 0
20817 2 0.42801094364233006 15.303274238983562 5.062809547407594 0 0 1
1168 3 1.997322782209623 19.226794168080467 4.569671768093398 0 0 0
1090 3 -1.204319738114331 17.565976019987684 5.79974460883075 0 0 0
19311 2 0.3954616464237475 17.553468549734717 3.4370047902603074 0 0 1
1221 2 4.314186481230799 16.49718171555628 2.239722842366985 1 0 0
302 1 4.896730332628808 18.878151010174363 2.0536736528058834 0 0 0
21043 1 5.957464236737674 17.16136308971253 3.9543277810592388 0 0 1
370 3 4.2697312192494765 18.656411960042323 4.1967833065599685 0 0 0
294 5 6.361516775492458 19.587380384667142 3.7185767349460783 0 0 0
20173 1 2.8255498354915343 16.683289540280462 4.734163305659148 0 0 1
1237 1 2.5511090711674695 18.119806003483074 2.529914113760955 0 0 0
226 3 8.535825626222746 17.313282104244582 3.644353833957572 0 0 0
20969 4 10.73247161335304 17.036201146480515 3.58656229763873 0 0 1
163 1 6.946375175577298 17.891917653102514 2.136591799624327 0 0 0
20963 4 9.082930706455144 19.362518336480196 3.0704178800608046 0 0 1
310 3 10.72011426288867 16.49464083431448 83.60509987063794 0 0 -1
305 4 9.421096230503622 18.42283206234147 5.444591959581851 0 0 0
307 1 7.317898714527997 18.35329807316154 5.2149337735750745 0 0 0
376 3 9.043927062297195 18.222939050617445 83.42985776860247 0 0 -1
21182 1 7.268128701793529 20.006749760470314 1.7936744128785447 0 0 1
1166 1 7.7549855220844695 16.157296321432224 5.553948234575529 0 0 0
1174 3 12.724072031281827 16.087081231433835 4.311960709206227 0 0 0
21041 4 13.122516073822288 17.987501542322256 3.3063925012356155 0 0 1
21036 5 11.238401039689562 18.610873526507515 83.6037924519632 0 0 0
21113 4 11.320494805703541 19.40956938449646 4.121565544246421 0 0 1
21047 4 14.675019867527293 18.14724095269813 5.171930467478484 0 0 1
20975 4 14.959769570088863 16.30942685919721 3.331097721122271 0 0 1
460 3 12.53673594031331 19.92427685896919 2.4783167873466114 0 0 0
308 1 14.398121458145315 19.82713071856012 1.4895165518711186 0 0 0
1107 2 15.385379055969143 16.165242752478488 83.47358887099716 0 0 -1
384 5 17.360887744364433 16.5203701176107 2.084720550767164 0 0 0
1181 4 19.409731186977304 16.11040529188616 3.892270459226657 0 0 0
455 4 18.55594827770225 18.535611003054232 3.6582424905584143 0 0 0
456 5 16.982123895275034 16.806611976901355 5.096484668984508 0 0 0
450 5 15.93697813105615 18.9693957941347 2.927750341245735 0 0 0
383 4 16.167248727745537 20.198297232426143 5.315451251390406 0 0 0
21125 4 20.162485198444752 17.566160101568652 1.9620926076760639 0 0 1
462 5 21.29154611390304 17.85999797316457 4.484897873875057 0 0 0
317 4 22.30777645323455 16.155620390052633 2.7423484542809344 0 0 0
20995 1 23.140289849215016 16.996811789973588 4.43077484917575 0 0 1
20333 4 22.173077324646545 19.166235719012157 2.2880253410838445 0 0 1