LAMMPS data file generated by Avogadro
6 atoms
0 bonds
5 atom types
 -4.603147   0.486043 xlo xhi
 -3.907944   0.803207 ylo yhi
 -2.578163   1.030789 zlo zhi
  0.000000   0.000000   0.000000 xy xz yz


Masses

4   26.9815
5   28.085
2   47.867
3   54.938
1   55.845



Atoms

1  1  -4.103147  -1.515640   0.266919
2  1  -3.423591   1.303207  -0.044074
3  2  -2.275819  -0.691425  -1.974190
4  3  -2.051917  -3.407944  -0.533803
5  4  -0.828186  -0.655523   1.530789
6  5   0.986043  -2.382920  -2.078163


